ITEM: TIMESTEP
0
ITEM: NUMBER OF ATOMS
30
ITEM: BOX BOUNDS pp pp pp
0.0 49.2
0.0 42.6
0.0 10.0
ITEM: ATOMS id type x y z vx vy vz fx fy fz
1 1 0 0.714984 0 1.54328 2.13497 0.93338 0 0 0
2 1 0 2.85989 0 2.19077 1.54194 -0.68881 0 0 0
3 1 1.2384 0 0 0.61317 -1.8758 0.68103 0 0 0
4 1 1.2384 2.1465 0 -1.3605 -1.056 -0.3842 0 0 0
5 1 2.4768 0.7197 0 -0.156 -0.5803 -0.6694 0 0 0
6 1 2.4768 2.1497 0 -0.1158 0.6633 -0.4985 0 0 0
7 1 3.7152 0.0048 0 -0.6887 -0.6092 0.3752 0 0 0
8 1 3.7152 2.8646 0 0.04713 -0.9209 -0.3165 0 0 0
9 1 4.9536 0.7197 0 -0.2001 -0.2128 -0.4300 0 0 0
10 1 4.9536 2.1497 0 0.6736 -0.3118 0.5378 0 0 0
11 2 0 4.7149 3.0 1.54328 0.8549 0.1338 0 0 0
12 2 0 6.8598 3.0 2.19077 0.4194 -0.881 0 0 0
13 2 1.2384 4.0048 3.0 0.61317 -0.875 0.8103 0 0 0
14 2 1.2384 6.8646 3.0 -1.3605 -0.056 -0.842 0 0 0
15 2 2.4768 4.7197 3.0 -0.156 -0.803 -0.694 0 0 0
16 2 2.4768 6.1497 3.0 -0.1158 0.633 -0.985 0 0 0
17 2 3.7152 4.0048 3.0 -0.6887 -0.092 0.752 0 0 0
18 2 3.7152 6.8646 3.0 0.04713 -0.209 -0.165 0 0 0
19 2 4.9536 4.7197 3.0 -0.2001 -0.128 -0.300 0 0 0
20 2 4.9536 6.1497 3.0 0.6736 -0.118 0.378 0 0 0
21 1 6.192 0.0048 0 -0.5961 -0.3575 -0.0627 0 0 0
22 1 6.192 2.8646 0 -4.7633 -3.4138 5.0651 0 0 0
23 1 7.4304 0.7197 0 0.55764 0.62651 -0.3127 0 0 0
24 1 7.4304 2.1497 0 0.06315 -0.3532 0.0348 0 0 0
25 2 6.192 4.0048 3.0 -0.5961 -0.575 -0.627 0 0 0
26 2 6.192 6.8646 3.0 -0.7633 -0.138 0.651 0 0 0
27 2 7.4304 4.7197 3.0 0.55764 0.651 -0.127 0 0 0
28 2 7.4304 6.1497 3.0 0.06315 -0.532 0.348 0 0 0
29 1 8.6688 0.0048 0 -0.5833 -0.5349 -0.7089 0 0 0
30 1 8.6688 2.8646 0 -2.3893 1.5151 2.5025 0 0 0
ITEM: TIMESTEP
100
ITEM: NUMBER OF ATOMS
30
ITEM: BOX BOUNDS pp pp pp
0.0 49.2
0.0 42.6
0.0 10.0
ITEM: ATOMS id type x y z vx vy vz fx fy fz
1 1 0.1543 0.9284 0 1.6432 2.2349 0.9333 0 0 0
2 1 0.2190 3.0140 0 2.2907 1.6419 -0.6888 0 0 0
3 1 1.3015 0.1875 0 0.6431 -1.9758 0.6810 0 0 0
4 1 1.1023 2.0409 0 -1.4305 -1.1056 -0.3842 0 0 0
5 1 2.4612 0.6617 0 -0.1640 -0.6083 -0.7004 0 0 0
6 1 2.4652 2.2130 0 -0.1218 0.6963 -0.5234 0 0 0
7 1 3.6463 -0.0601 0 -0.7231 -0.6396 0.3939 0 0 0
8 1 3.7199 2.7725 0 0.0494 -0.9669 -0.3323 0 0 0
9 1 4.9336 0.6975 0 -0.2101 -0.2234 -0.4515 0 0 0
10 1 5.0209 2.1185 0 0.7072 -0.3273 0.5646 0 0 0
11 2 0.1543 4.8003 3.0 1.6204 0.8976 0.1404 0 0 0
12 2 0.2190 6.9452 3.0 2.3001 0.4403 -0.9250 0 0 0
13 2 1.3015 4.0923 3.0 0.6438 -0.9187 0.8508 0 0 0
14 2 1.1023 6.8090 3.0 -1.4285 -0.0588 -0.8841 0 0 0
15 2 2.4612 4.6394 3.0 -0.1638 -0.8431 -0.7288 0 0 0
16 2 2.4652 6.2130 3.0 -0.1215 0.6646 -1.0342 0 0 0
17 2 3.6463 3.9447 3.0 -0.7231 -0.0966 0.7896 0 0 0
18 2 3.7199 6.7724 3.0 0.0494 -0.2194 -0.1732 0 0 0
19 2 4.9336 4.6072 3.0 -0.2101 -0.1344 -0.3150 0 0 0
20 2 5.0209 6.1185 3.0 0.7072 -0.1239 0.3969 0 0 0
21 1 6.1324 -0.0552 0 -0.6259 -0.3753 -0.0658 0 0 0
22 1 5.7157 2.5232 0 -5.0014 -3.5844 5.3183 0 0 0
23 1 7.4881 0.7823 0 0.5855 0.6578 -0.3283 0 0 0
24 1 7.4366 2.1143 0 0.0663 -0.3708 0.0365 0 0 0
25 2 6.1324 3.9497 3.0 -0.6259 -0.6037 -0.6583 0 0 0
26 2 5.7157 6.5232 3.0 -0.8014 -0.1449 0.6833 0 0 0
27 2 7.4881 4.8435 3.0 0.5855 0.6833 -0.1333 0 0 0
28 2 7.4366 6.1143 3.0 0.0663 -0.5586 0.3654 0 0 0
29 1 8.6104 -0.0586 0 -0.6124 -0.5616 -0.7443 0 0 0
30 1 8.4298 3.0161 0 -2.5087 1.5908 2.6276 0 0 0
ITEM: TIMESTEP
200
ITEM: NUMBER OF ATOMS
30
ITEM: BOX BOUNDS pp pp pp
0.0 49.2
0.0 42.6
0.0 10.0
ITEM: ATOMS id type x y z vx vy vz fx fy fz
1 1 0.3186 1.1633 0 1.7253 2.3466 0.9799 0 0 0
2 1 0.4480 3.1746 0 2.4052 1.7240 -0.7232 0 0 0
3 1 1.3659 0.3750 0 0.6752 -2.0745 0.7150 0 0 0
4 1 0.9607 1.9354 0 -1.5020 -1.1608 -0.4034 0 0 0
5 1 2.4456 0.6037 0 -0.1722 -0.6387 -0.7354 0 0 0
6 1 2.4536 2.2797 0 -0.1278 0.7311 -0.5495 0 0 0
7 1 3.5736 -0.1251 0 -0.7592 -0.6715 0.4136 0 0 0
8 1 3.7246 2.6804 0 0.0518 -1.0152 -0.3489 0 0 0
9 1 4.9136 0.6754 0 -0.2206 -0.2345 -0.4740 0 0 0
10 1 5.0917 2.0874 0 0.7425 -0.3436 0.5928 0 0 0
11 2 0.3186 4.8891 3.0 1.7014 0.9424 0.1474 0 0 0
12 2 0.4480 7.0361 3.0 2.4151 0.4623 -0.9712 0 0 0
13 2 1.3659 4.1839 3.0 0.6759 -0.9646 0.8933 0 0 0
14 2 0.9607 6.7534 3.0 -1.4999 -0.0617 -0.9283 0 0 0
15 2 2.4456 4.5592 3.0 -0.1719 -0.8852 -0.7652 0 0 0
16 2 2.4536 6.2797 3.0 -0.1275 0.6978 -1.0859 0 0 0
17 2 3.5736 3.8846 3.0 -0.7592 -0.1014 0.8290 0 0 0
18 2 3.7246 6.6804 3.0 0.0518 -0.2303 -0.1818 0 0 0
19 2 4.9136 4.4946 3.0 -0.2206 -0.1411 -0.3307 0 0 0
20 2 5.0917 6.0874 3.0 0.7425 -0.1300 0.4167 0 0 0
21 1 6.0698 -0.1152 0 -0.6571 -0.3940 -0.0690 0 0 0
22 1 5.2144 2.1818 0 -5.2514 -3.7636 5.5842 0 0 0
23 1 7.5468 0.8480 0 0.6147 0.6906 -0.3447 0 0 0
24 1 7.4429 2.0789 0 0.0696 -0.3893 0.0383 0 0 0
25 2 6.0698 3.8946 3.0 -0.6571 -0.6338 -0.6912 0 0 0
26 2 5.2144 6.1818 3.0 -0.8414 -0.1521 0.7174 0 0 0
27 2 7.5468 4.9717 3.0 0.6147 0.7174 -0.1399 0 0 0
28 2 7.4429 6.0789 3.0 0.0696 -0.5865 0.3836 0 0 0
29 1 8.5480 -0.1221 0 -0.6430 -0.5896 -0.7815 0 0 0
30 1 8.1805 3.1769 0 -2.6341 1.6703 2.7589 0 0 0 